title: Americium
atomic-mass: 243
atomic-number: 95
atomic-radius: 
boiling-point: 2880
created: 20230224032618200
density: 1.37E+01
discoverer: Seaborg et al.
electronegativity: 1.3
element: Americium
element-type: Actinide
first-ionization: 5.9738
group: 
melting-point: 1267.15
metal: yes
metalloid: 
modified: 20230224032618200
natural: 
non-metal: 
number-of-electrons: 95
number-of-isotopes: 133
number-of-neutrons: 148
number-of-protons: 95
number-of-shells: 7
number-of-valence: 
period: 7
phase: artificial
radioactive: yes
specific-heat: 
symbol: Am
tags: [[Chemical Element]]
wikipedia-extract: Americium is a synthetic radioactive chemical element with the symbol Am and atomic number 95. It is a transuranic member of the actinide series, in the periodic table located under the lanthanide element europium, and thus by analogy was named after the Americas.
wikipedia-link: https://en.wikipedia.org/wiki/Americium
year: 1944