title: Arsenic
atomic-mass: 74.922
atomic-number: 33
atomic-radius: 1.3
boiling-point: 887
created: 20230214000311538
density: 5.78E+00
discoverer: Albertus Magnus
electronegativity: 2.18
element: Arsenic
element-type: Metalloid
first-ionization: 9.7886
group: 15
melting-point: 1090.15
metal: 
metalloid: yes
modified: 20230214000311538
natural: yes
non-metal: 
number-of-electrons: 33
number-of-isotopes: 14
number-of-neutrons: 42
number-of-protons: 33
number-of-shells: 4
number-of-valence: 5
period: 4
phase: solid
radioactive: 
specific-heat: 0.329
symbol: As
tags: [[Chemical Element]]
year: 1250

> Arsenic is a chemical element with the symbol As and atomic number 33. Arsenic occurs in many minerals, usually in combination with sulfur and metals, but also as a pure elemental crystal. Arsenic is a metalloid. It has various allotropes, but only the gray form, which has a metallic appearance, is important to industry.

> ([[more information from Wikipedia|https://en.wikipedia.org/wiki/Arsenic]])