title: Arsenic
atomic-mass: 74.922
atomic-number: 33
atomic-radius: 1.3
boiling-point: 887
created: 20230419034107071
density: 5.78
discoverer: Albertus Magnus
electronegativity: 2.18
element: Arsenic
element-type: Metalloid
first-ionization: 9.7886
group: 15
melting-point: 1090.15
metal: no
metalloid: yes
modified: 20230419034107071
natural: yes
non-metal: no
number-of-electrons: 33
number-of-isotopes: 14
number-of-neutrons: 42
number-of-protons: 33
number-of-shells: 4
number-of-valence: 5
period: 4
phase: solid
radioactive: 
specific-heat: 0.329
symbol: As
tags: [[Chemical Element]]
wikipedia-extract: Arsenic is a chemical element with the symbol As and atomic number 33. Arsenic occurs in many minerals, usually in combination with [[sulfur|Sulfur]] and metals, but also as a pure elemental crystal. Arsenic is a metalloid. It has various allotropes, but only the gray form, which has a metallic appearance, is important to industry.
wikipedia-link: https://en.wikipedia.org/wiki/Arsenic
year: 1250