title: Barium
atomic-mass: 137.327
atomic-number: 56
atomic-radius: 2.8
boiling-point: 2170
density: 3.59E+00
discoverer: Davy
electronegativity: 0.89
element: Barium
element-type: Alkaline Earth Metal
first-ionization: 5.2117
group: 2
melting-point: 1002.15
metal: yes
metalloid: 
natural: yes
non-metal: 
number-of-electrons: 56
number-of-isotopes: 25
number-of-neutrons: 81
number-of-protons: 56
number-of-shells: 6
number-of-valence: 2
period: 6
phase: solid
radioactive: 
specific-heat: 0.204
symbol: Ba
tags: [[Chemical Element]]
year: 1808

> Barium is a chemical element with the symbol Ba and atomic number 56. It is the fifth element in group 2 and is a soft, silvery alkaline earth metal. Because of its high chemical reactivity, barium is never found in nature as a free element.

> ([[more information from Wikipedia|https://en.wikipedia.org/wiki/Barium]])