title: Bohrium
atomic-mass: 264
atomic-number: 107
atomic-radius: 
boiling-point: 
created: 20230227152240598
density: 37
discoverer: Armbruster and Münzenberg
electronegativity: 
element: Bohrium
element-type: Transactinide
first-ionization: 
group: 7
melting-point: 
metal: yes
metalloid: no
modified: 20230227152240598
natural: no
non-metal: no
number-of-electrons: 107
number-of-isotopes: 
number-of-neutrons: 157
number-of-protons: 107
number-of-shells: 7
number-of-valence: 
period: 7
phase: artificial
radioactive: yes
specific-heat: 
symbol: Bh
tags: [[Chemical Element]]
wikipedia-extract: Bohrium is a synthetic chemical element with the symbol Bh and atomic number 107. It is named after Danish physicist Niels Bohr. As a synthetic element, it can be created in a laboratory but is not found in nature. All known isotopes of bohrium are highly radioactive; the most stable known isotope is 270Bh with a half-life of approximately 2.4 minutes, though the unconfirmed 278Bh may have a longer half-life of about 11.5 minutes.
wikipedia-link: https://en.wikipedia.org/wiki/Bohrium
year: 1981