title: Chromium
atomic-mass: 51.996
atomic-number: 24
atomic-radius: 1.9
boiling-point: 2944
created: 20230214000311538
density: 7.15E+00
discoverer: Vauquelin
electronegativity: 1.66
element: Chromium
element-type: Transition Metal
first-ionization: 6.7665
group: 6
melting-point: 2130.15
metal: yes
metalloid: 
modified: 20230214000311538
natural: yes
non-metal: 
number-of-electrons: 24
number-of-isotopes: 9
number-of-neutrons: 28
number-of-protons: 24
number-of-shells: 4
number-of-valence: 
period: 4
phase: solid
radioactive: 
specific-heat: 0.449
symbol: Cr
tags: [[Chemical Element]]
year: 1797

> Chromium is a chemical element with the symbol Cr and atomic number 24. It is the first element in group 6. It is a steely-grey, lustrous, hard, and brittle transition metal.

> ([[more information from Wikipedia|https://en.wikipedia.org/wiki/Chromium]])