title: Curium
atomic-mass: 247
atomic-number: 96
atomic-radius: 
boiling-point: 3383
created: 20230224032618200
density: 1.35E+01
discoverer: Seaborg et al.
electronegativity: 1.3
element: Curium
element-type: Actinide
first-ionization: 5.9915
group: 
melting-point: 1340.15
metal: yes
metalloid: 
modified: 20230224032618200
natural: 
non-metal: 
number-of-electrons: 96
number-of-isotopes: 133
number-of-neutrons: 151
number-of-protons: 96
number-of-shells: 7
number-of-valence: 
period: 7
phase: artificial
radioactive: yes
specific-heat: 
symbol: Cm
tags: [[Chemical Element]]
wikipedia-extract: Curium is a transuranic, radioactive chemical element with the symbol Cm and atomic number 96. This actinide element was named after eminent scientists Marie and Pierre Curie, both known for their research on radioactivity. Curium was first intentionally made by the team of Glenn T. Seaborg, Ralph A. James, and Albert Ghiorso in 1944, using the cyclotron at Berkeley. They bombarded the newly discovered element plutonium with alpha particles. This was then sent to the Metallurgical Laboratory at University of Chicago where a tiny sample of curium was eventually separated and identified. The discovery was kept secret until after the end of World War II. The news was released to the public in November 1947. Most curium is produced by bombarding uranium or plutonium with neutrons in nuclear reactors – one tonne of spent nuclear fuel contains ~20 grams of curium.
wikipedia-link: https://en.wikipedia.org/wiki/Curium
year: 1944