title: Darmstadtium
atomic-mass: 271
atomic-number: 110
atomic-radius: 
boiling-point: 
created: 20230415010558065
density: 
discoverer: 
electronegativity: 
element: Darmstadtium
element-type: Transactinide
first-ionization: 
group: 10
melting-point: 
metal: yes
metalloid: no
modified: 20230415010558065
natural: no
non-metal: no
number-of-electrons: 110
number-of-isotopes: 
number-of-neutrons: 161
number-of-protons: 110
number-of-shells: 7
number-of-valence: 
period: 7
phase: artificial
radioactive: yes
specific-heat: 
symbol: Ds
tags: [[Chemical Element]]
wikipedia-extract: Darmstadtium is a chemical element with the symbol Ds and atomic number 110. It is an extremely radioactive synthetic element. The most stable known isotope, darmstadtium-281, has a half-life of approximately 12.7 seconds. Darmstadtium was first created in 1994 by the GSI Helmholtz Centre for Heavy Ion Research in the city of Darmstadt, Germany, after which it was named.
wikipedia-link: https://en.wikipedia.org/wiki/Darmstadtium
year: 1994