title: Dubnium
atomic-mass: 262
atomic-number: 105
atomic-radius: 
boiling-point: 
created: 20230227152240598
density: 39
discoverer: Ghiorso et al.
electronegativity: 
element: Dubnium
element-type: Transactinide
first-ionization: 
group: 5
melting-point: 
metal: yes
metalloid: no
modified: 20230227152240598
natural: no
non-metal: no
number-of-electrons: 105
number-of-isotopes: 
number-of-neutrons: 157
number-of-protons: 105
number-of-shells: 7
number-of-valence: 
period: 7
phase: artificial
radioactive: yes
specific-heat: 
symbol: Db
tags: [[Chemical Element]]
wikipedia-extract: Dubnium is a synthetic chemical element with the symbol Db and atomic number 105. It is highly radioactive: the most stable known isotope, dubnium-268, has a half-life of about 16 hours. This greatly limits extended research on the element.
wikipedia-link: https://en.wikipedia.org/wiki/Dubnium
year: 1970