title: Gallium
atomic-mass: 69.723
atomic-number: 31
atomic-radius: 1.8
boiling-point: 2477
created: 20230419034107071
density: 5.91
discoverer: de Boisbaudran
electronegativity: 1.81
element: Gallium
element-type: Metal
first-ionization: 5.9993
group: 13
melting-point: 302.91
metal: yes
metalloid: no
modified: 20230419034107071
natural: yes
non-metal: no
number-of-electrons: 31
number-of-isotopes: 14
number-of-neutrons: 39
number-of-protons: 31
number-of-shells: 4
number-of-valence: 3
period: 4
phase: solid
radioactive: 
specific-heat: 0.371
symbol: Ga
tags: [[Chemical Element]]
wikipedia-extract: Gallium is a chemical element with the symbol Ga and atomic number 31. Discovered by the French chemist Paul-Émile Lecoq de Boisbaudran in 1875, gallium is in group 13 of the periodic table and is similar to the other metals of the group.
wikipedia-link: https://en.wikipedia.org/wiki/Gallium
year: 1875