title: Germanium
atomic-mass: 72.64
atomic-number: 32
atomic-radius: 1.5
boiling-point: 3106
created: 20230227152240597
density: 5.32
discoverer: Winkler
electronegativity: 2.01
element: Germanium
element-type: Metalloid
first-ionization: 7.8994
group: 14
melting-point: 1211.45
metal: no
metalloid: yes
modified: 20230227152240597
natural: yes
non-metal: no
number-of-electrons: 32
number-of-isotopes: 17
number-of-neutrons: 41
number-of-protons: 32
number-of-shells: 4
number-of-valence: 4
period: 4
phase: solid
radioactive: 
specific-heat: 0.32
symbol: Ge
tags: [[Chemical Element]]
wikipedia-extract: Germanium is a chemical element with the symbol Ge and atomic number 32. It is lustrous, hard-brittle, grayish-white and similar in appearance to [[silicon|Silicon]]. It is a metalloid in the [[carbon|Carbon]] group that is chemically similar to its group neighbors [[silicon|Silicon]] and [[tin|Tin]]. Like [[silicon|Silicon]], germanium naturally reacts and forms complexes with [[oxygen|Oxygen]] in nature.
wikipedia-link: https://en.wikipedia.org/wiki/Germanium
year: 1886