title: Gold
atomic-mass: 196.967
atomic-number: 79
atomic-radius: 1.8
boiling-point: 3129
created: 20230415010558064
density: 19.3
discoverer: Prehistoric
electronegativity: 2.54
element: Gold
element-type: Transition Metal
first-ionization: 9.2255
group: 11
melting-point: 1337.73
metal: yes
metalloid: no
modified: 20230415010558064
natural: yes
non-metal: no
number-of-electrons: 79
number-of-isotopes: 21
number-of-neutrons: 118
number-of-protons: 79
number-of-shells: 6
number-of-valence: 
period: 6
phase: solid
radioactive: 
specific-heat: 0.129
symbol: Au
tags: [[Chemical Element]]
wikipedia-extract: Gold is a chemical element with the symbol Au and atomic number 79. This makes it one of the higher–atomic-number elements that occur naturally. It is a bright, slightly orange-yellow, dense, soft, malleable, and ductile metal in a pure form. Chemically, gold is a transition metal and a group 11 element. It is one of the least reactive chemical elements and is solid under standard conditions.
wikipedia-link: https://en.wikipedia.org/wiki/Gold
year: 