title: Hassium
atomic-mass: 267
atomic-number: 108
atomic-radius: 
boiling-point: 
created: 20230414015312125
density: 41
discoverer: Armbruster and Münzenberg
electronegativity: 
element: Hassium
element-type: Transactinide
first-ionization: 
group: 8
melting-point: 
metal: yes
metalloid: no
modified: 20230414015312125
natural: no
non-metal: no
number-of-electrons: 108
number-of-isotopes: 
number-of-neutrons: 159
number-of-protons: 108
number-of-shells: 7
number-of-valence: 
period: 7
phase: artificial
radioactive: yes
specific-heat: 
symbol: Hs
tags: [[Chemical Element]]
wikipedia-extract: Hassium is a chemical element with the symbol Hs and the atomic number 108. Hassium is highly radioactive; its most stable known isotopes have half-lives of approximately ten seconds. One of its isotopes, 270Hs, has magic numbers of both protons and neutrons for deformed nuclei, which gives it greater stability against spontaneous fission. Hassium is a superheavy element; it has been produced in a laboratory only in very small quantities by fusing heavy nuclei with lighter ones. Natural occurrences of the element have been hypothesised but never found.
wikipedia-link: https://en.wikipedia.org/wiki/Hassium
year: 1983