title: Krypton
atomic-mass: 83.798
atomic-number: 36
atomic-radius: 1
boiling-point: 119.93
created: 20230214000311538
density: 3.73E-03
discoverer: Ramsay and Travers
electronegativity: 
element: Krypton
element-type: Noble Gas
first-ionization: 13.9996
group: 18
melting-point: 115.93
metal: 
metalloid: 
modified: 20230214000311538
natural: yes
non-metal: yes
number-of-electrons: 36
number-of-isotopes: 23
number-of-neutrons: 48
number-of-protons: 36
number-of-shells: 4
number-of-valence: 8
period: 4
phase: gas
radioactive: 
specific-heat: 0.248
symbol: Kr
tags: [[Chemical Element]]
year: 1898

> Krypton is a chemical element with the symbol Kr and atomic number 36. It is a colorless, odorless, tasteless noble gas that occurs in trace amounts in the atmosphere and is often used with other rare gases in fluorescent lamps. Krypton is chemically inert.

> ([[more information from Wikipedia|https://en.wikipedia.org/wiki/Krypton]])