title: Lithium
atomic-mass: 6.941
atomic-number: 3
atomic-radius: 2.1
boiling-point: 1615
created: 20230224032618199
density: 5.34E-01
discoverer: Arfvedson
electronegativity: 0.98
element: Lithium
element-type: Alkali Metal
first-ionization: 5.3917
group: 1
melting-point: 453.85
metal: yes
metalloid: 
modified: 20230224032618199
natural: yes
non-metal: 
number-of-electrons: 3
number-of-isotopes: 5
number-of-neutrons: 4
number-of-protons: 3
number-of-shells: 2
number-of-valence: 1
period: 2
phase: solid
radioactive: 
specific-heat: 3.582
symbol: Li
tags: [[Chemical Element]]
wikipedia-extract: Lithium is a chemical element with the symbol Li and atomic number 3. It is a soft, silvery-white alkali metal. Under standard conditions, it is the least dense metal and the least dense solid element. Like all alkali metals, lithium is highly reactive and flammable, and must be stored in vacuum, inert atmosphere, or inert liquid such as purified kerosene or mineral oil. When cut, it exhibits a metallic luster, but moist air corrodes it quickly to a dull silvery gray, then black tarnish. It never occurs freely in nature, but only in compounds, such as pegmatitic minerals, which were once the main source of lithium. Due to its solubility as an ion, it is present in ocean water and is commonly obtained from brines. Lithium metal is isolated electrolytically from a mixture of lithium chloride and potassium chloride.
wikipedia-link: https://en.wikipedia.org/wiki/Lithium
year: 1817