title: Livermorium
atomic-mass: 292
atomic-number: 116
atomic-radius: 
boiling-point: 
created: 20230419034107079
density: 
discoverer: 
electronegativity: 
element: Livermorium
element-type: Transactinide
first-ionization: 
group: 16
melting-point: 
metal: yes
metalloid: no
modified: 20230419034107079
natural: no
non-metal: no
number-of-electrons: 116
number-of-isotopes: 
number-of-neutrons: 176
number-of-protons: 116
number-of-shells: 7
number-of-valence: 6
period: 7
phase: artificial
radioactive: yes
specific-heat: 
symbol: Lv
tags: [[Chemical Element]]
wikipedia-extract: Livermorium is a synthetic chemical element with the symbol Lv and has an atomic number of 116. It is an extremely radioactive element that has only been created in a laboratory setting and has not been observed in nature. The element is named after the Lawrence Livermore National Laboratory in the United States, which collaborated with the Joint Institute for Nuclear Research (JINR) in Dubna, Russia, to discover livermorium during experiments conducted between 2000 and 2006. The name of the laboratory refers to the city of Livermore, California, where it is located, which in turn was named after the rancher and landowner Robert Livermore. The name was adopted by IUPAC on May 30, 2012. Four isotopes of livermorium are known, with mass numbers between 290 and 293 inclusive; the longest-lived among them is livermorium-293 with a half-life of about 60 milliseconds. A fifth possible isotope with mass number 294 has been reported but not yet confirmed.
wikipedia-link: https://en.wikipedia.org/wiki/Livermorium
year: 2000