title: Mendelevium
atomic-mass: 258
atomic-number: 101
atomic-radius: 
boiling-point: 
created: 20230214000311539
density: 
discoverer: Ghiorso et al.
electronegativity: 1.3
element: Mendelevium
element-type: Actinide
first-ionization: 6.58
group: 
melting-point: 
metal: yes
metalloid: 
modified: 20230214000311539
natural: 
non-metal: 
number-of-electrons: 101
number-of-isotopes: 33
number-of-neutrons: 157
number-of-protons: 101
number-of-shells: 7
number-of-valence: 
period: 7
phase: artificial
radioactive: yes
specific-heat: 
symbol: Md
tags: [[Chemical Element]]
year: 1955

> Mendelevium is a synthetic element with the symbol Md and atomic number 101. A metallic radioactive transuranium element in the actinide series, it is the first element by atomic number that currently cannot be produced in macroscopic quantities by neutron bombardment of lighter elements. It is the third-to-last actinide and the ninth transuranic element. It can only be produced in particle accelerators by bombarding lighter elements with charged particles. Seventeen isotopes are known; the most stable is 258Md with half-life 51 days; however, the shorter-lived 256Md is most commonly used in chemistry because it can be produced on a larger scale.

> ([[more information from Wikipedia|https://en.wikipedia.org/wiki/Mendelevium]])