title: Nickel
atomic-mass: 58.693
atomic-number: 28
atomic-radius: 1.6
boiling-point: 3186
created: 20230227152240597
density: 8.91
discoverer: Cronstedt
electronegativity: 1.91
element: Nickel
element-type: Transition Metal
first-ionization: 7.6398
group: 10
melting-point: 1726.15
metal: yes
metalloid: no
modified: 20230227152240597
natural: yes
non-metal: no
number-of-electrons: 28
number-of-isotopes: 11
number-of-neutrons: 31
number-of-protons: 28
number-of-shells: 4
number-of-valence: 
period: 4
phase: solid
radioactive: 
specific-heat: 0.444
symbol: Ni
tags: [[Chemical Element]]
wikipedia-extract: Nickel is a chemical element with symbol Ni and atomic number 28. It is a silvery-white lustrous metal with a slight golden tinge. Nickel is a hard and ductile transition metal. Pure nickel is chemically reactive but large pieces are slow to react with air under standard conditions because a passivation layer of nickel oxide forms on the surface that prevents further corrosion. Even so, pure native nickel is found in Earth's crust only in tiny amounts, usually in ultramafic rocks, and in the interiors of larger nickel–[[iron|Iron]] meteorites that were not exposed to [[oxygen|Oxygen]] when outside Earth's atmosphere.
wikipedia-link: https://en.wikipedia.org/wiki/Nickel
year: 1751