title: Osmium
atomic-mass: 190.23
atomic-number: 76
atomic-radius: 1.9
boiling-point: 5285
created: 20230214000311539
density: 2.26E+01
discoverer: Tennant
electronegativity: 2.2
element: Osmium
element-type: Transition Metal
first-ionization: 8.4382
group: 8
melting-point: 3300.15
metal: yes
metalloid: 
modified: 20230214000311539
natural: yes
non-metal: 
number-of-electrons: 76
number-of-isotopes: 19
number-of-neutrons: 114
number-of-protons: 76
number-of-shells: 6
number-of-valence: 
period: 6
phase: solid
radioactive: 
specific-heat: 0.13
symbol: Os
tags: [[Chemical Element]]
year: 1803

> Osmium is a chemical element with the symbol Os and atomic number 76. It is a hard, brittle, bluish-white transition metal in the platinum group that is found as a trace element in alloys, mostly in platinum ores. Osmium is the densest naturally occurring element. When experimentally measured using X-ray crystallography, it has a density of 22.59 g/cm3. Manufacturers use its alloys with platinum, iridium, and other platinum-group metals to make fountain pen nib tipping, electrical contacts, and in other applications that require extreme durability and hardness.

> ([[more information from Wikipedia|https://en.wikipedia.org/wiki/Osmium]])