title: Osmium
atomic-mass: 190.23
atomic-number: 76
atomic-radius: 1.9
boiling-point: 5285
created: 20230325222518768
density: 22.6
discoverer: Tennant
electronegativity: 2.2
element: Osmium
element-type: Transition Metal
first-ionization: 8.4382
group: 8
melting-point: 3300.15
metal: yes
metalloid: no
modified: 20230325222518768
natural: yes
non-metal: no
number-of-electrons: 76
number-of-isotopes: 19
number-of-neutrons: 114
number-of-protons: 76
number-of-shells: 6
number-of-valence: 
period: 6
phase: solid
radioactive: 
specific-heat: 0.13
symbol: Os
tags: [[Chemical Element]]
wikipedia-extract: Osmium is a chemical element with the symbol Os and atomic number 76. It is a hard, brittle, bluish-white transition metal in the [[platinum|Platinum]] group that is found as a trace element in alloys, mostly in [[platinum|Platinum]] ores. Osmium is the densest naturally occurring element. When experimentally measured using X-ray crystallography, it has a density of 22.59 g/cm3. Manufacturers use its alloys with [[platinum|Platinum]], [[iridium|Iridium]], and other [[platinum|Platinum]]-group metals to make fountain pen nib tipping, electrical contacts, and in other applications that require extreme durability and hardness.
wikipedia-link: https://en.wikipedia.org/wiki/Osmium
year: 1803