title: Oxygen
atomic-mass: 15.999
atomic-number: 8
atomic-radius: 0.65
boiling-point: 90.2
created: 20230227152240597
density: 0.00143
discoverer: Priestley/Scheele
electronegativity: 3.44
element: Oxygen
element-type: Nonmetal
first-ionization: 13.6181
group: 16
melting-point: 50.5
metal: no
metalloid: no
modified: 20230227152240597
natural: yes
non-metal: yes
number-of-electrons: 8
number-of-isotopes: 8
number-of-neutrons: 8
number-of-protons: 8
number-of-shells: 2
number-of-valence: 6
period: 2
phase: gas
radioactive: 
specific-heat: 0.918
symbol: O
tags: [[Chemical Element]]
wikipedia-extract: Oxygen is the chemical element with the symbol O and atomic number 8. It is a member of the chalcogen group in the periodic table, a highly reactive nonmetal, and an oxidizing agent that readily forms oxides with most elements as well as with other compounds. Oxygen is Earth's most abundant element, and after [[hydrogen|Hydrogen]] and [[helium|Helium]], it is the third-most abundant element in the universe. At standard temperature and pressure, two atoms of the element bind to form dioxygen, a colorless and odorless diatomic gas with the formula O2. Diatomic oxygen gas currently constitutes 20.95% of the Earth's atmosphere, though this has changed considerably over long periods of time. Oxygen makes up almost half of the Earth's crust in the form of oxides.
wikipedia-link: https://en.wikipedia.org/wiki/Oxygen
year: 1774