title: Platinum
atomic-mass: 195.084
atomic-number: 78
atomic-radius: 1.8
boiling-point: 4098
density: 2.15E+01
discoverer: Ulloa/Wood
electronegativity: 2.28
element: Platinum
element-type: Transition Metal
first-ionization: 8.9587
group: 10
melting-point: 2045.15
metal: yes
metalloid: 
natural: yes
non-metal: 
number-of-electrons: 78
number-of-isotopes: 32
number-of-neutrons: 117
number-of-protons: 78
number-of-shells: 6
number-of-valence: 
period: 6
phase: solid
radioactive: 
specific-heat: 0.133
symbol: Pt
tags: [[Chemical Element]]
year: 1735

> Platinum is a chemical element with the symbol Pt and atomic number 78. It is a dense, malleable, ductile, highly unreactive, precious, silverish-white transition metal. Its name originates from Spanish platina, a diminutive of plata "silver".

> ([[more information from Wikipedia|https://en.wikipedia.org/wiki/Platinum]])