title: Rutherfordium
atomic-mass: 261
atomic-number: 104
atomic-radius: 
boiling-point: 
created: 20230325222518772
density: 18.1
discoverer: Ghiorso et al.
electronegativity: 
element: Rutherfordium
element-type: Transactinide
first-ionization: 
group: 4
melting-point: 
metal: yes
metalloid: no
modified: 20230325222518772
natural: no
non-metal: no
number-of-electrons: 104
number-of-isotopes: 
number-of-neutrons: 157
number-of-protons: 104
number-of-shells: 7
number-of-valence: 
period: 7
phase: artificial
radioactive: yes
specific-heat: 
symbol: Rf
tags: [[Chemical Element]]
wikipedia-extract: Rutherfordium is a chemical element with the symbol Rf and atomic number 104, named after New Zealand-born British physicist Ernest Rutherford. As a synthetic element, it is not found in nature and can only be made in a particle accelerator. It is radioactive; the most stable known isotope, 267Rf, has a half-life of about 48 minutes.
wikipedia-link: https://en.wikipedia.org/wiki/Rutherfordium
year: 1969