title: Seaborgium
atomic-mass: 266
atomic-number: 106
atomic-radius: 
boiling-point: 
created: 20230414015312125
density: 35
discoverer: Ghiorso et al.
electronegativity: 
element: Seaborgium
element-type: Transactinide
first-ionization: 
group: 6
melting-point: 
metal: yes
metalloid: no
modified: 20230414015312125
natural: no
non-metal: no
number-of-electrons: 106
number-of-isotopes: 
number-of-neutrons: 160
number-of-protons: 106
number-of-shells: 7
number-of-valence: 
period: 7
phase: artificial
radioactive: yes
specific-heat: 
symbol: Sg
tags: [[Chemical Element]]
wikipedia-extract: Seaborgium is a synthetic chemical element with the symbol Sg and atomic number 106. It is named after the American nuclear chemist Glenn T. Seaborg. As a synthetic element, it can be created in a laboratory but is not found in nature. It is also radioactive; the most stable known isotope, 269Sg, has a half-life of approximately 14 minutes.
wikipedia-link: https://en.wikipedia.org/wiki/Seaborgium
year: 1974