title: Sulfur
atomic-mass: 32.065
atomic-number: 16
atomic-radius: 1.1
boiling-point: 717.8
density: 2.07E+00
discoverer: Prehistoric
electronegativity: 2.58
element: Sulfur
element-type: Nonmetal
first-ionization: 10.36
group: 16
melting-point: 388.51
metal: 
metalloid: 
natural: yes
non-metal: yes
number-of-electrons: 16
number-of-isotopes: 10
number-of-neutrons: 16
number-of-protons: 16
number-of-shells: 3
number-of-valence: 6
period: 3
phase: solid
radioactive: 
specific-heat: 0.71
symbol: S
tags: [[Chemical Element]]
year: 

> Sulfur (or sulphur in British English) is a chemical element with the symbol S and atomic number 16. It is abundant, multivalent and nonmetallic. Under normal conditions, sulfur atoms form cyclic octatomic molecules with a chemical formula S8. Elemental sulfur is a bright yellow, crystalline solid at room temperature.

> ([[more information from Wikipedia|https://en.wikipedia.org/wiki/Sulfur]])