title: Technetium
atomic-mass: 98
atomic-number: 43
atomic-radius: 2
boiling-point: 5150
created: 20230227152240597
density: 11.5
discoverer: Perrier and Segrè
electronegativity: 1.9
element: Technetium
element-type: Transition Metal
first-ionization: 7.28
group: 7
melting-point: 2473.15
metal: yes
metalloid: no
modified: 20230227152240597
natural: no
non-metal: no
number-of-electrons: 43
number-of-isotopes: 23
number-of-neutrons: 55
number-of-protons: 43
number-of-shells: 5
number-of-valence: 
period: 5
phase: artificial
radioactive: yes
specific-heat: 
symbol: Tc
tags: [[Chemical Element]]
wikipedia-extract: Technetium is a chemical element with the symbol Tc and atomic number 43. It is the lightest element whose isotopes are all radioactive. All available technetium is produced as a synthetic element. Naturally occurring technetium is a spontaneous fission product in [[uranium|Uranium]] ore and [[thorium|Thorium]] ore, the most common source, or the product of neutron capture in [[molybdenum|Molybdenum]] ores. This silvery gray, crystalline transition metal lies between [[manganese|Manganese]] and [[rhenium|Rhenium]] in group 7 of the periodic table, and its chemical properties are intermediate between those of both adjacent elements. The most common naturally occurring isotope is 99Tc, in traces only.
wikipedia-link: https://en.wikipedia.org/wiki/Technetium
year: 1937