title: Tennessine
atomic-mass: 295
atomic-number: 117
atomic-radius: 
boiling-point: 
created: 20230419034107079
density: 
discoverer: 
electronegativity: 
element: Tennessine
element-type: Transactinide
first-ionization: 
group: 17
melting-point: 
metal: no
metalloid: no
modified: 20230419034107079
natural: no
non-metal: yes
number-of-electrons: 117
number-of-isotopes: 
number-of-neutrons: 178
number-of-protons: 117
number-of-shells: 7
number-of-valence: 7
period: 7
phase: artificial
radioactive: yes
specific-heat: 
symbol: Ts
tags: [[Chemical Element]]
wikipedia-extract: Tennessine is a synthetic chemical element with the symbol Ts and atomic number 117. It is the second-heaviest known element and the penultimate element of the 7th period of the periodic table.
wikipedia-link: https://en.wikipedia.org/wiki/Tennessine
year: 2010